 Gaussian 09, Revision C.01,
 Gaussian 09:  AM64L-G09RevC.01 23-Sep-2011

 ----------------------------------------------
 #HF/6-31G* Test Pop=MK iop(6/33=2) iop(6/42=6)
 ----------------------------------------------

 99/5=1,9=1/99;
 --------
 18 atoms
 --------
 Charge =  0 Multiplicity = 1

                         Standard orientation:
 ---------------------------------------------------------------------
 Center     Atomic      Atomic             Coordinates (Angstroms)
 Number     Number       Type             X           Y           Z
 ---------------------------------------------------------------------
      1          6           0        1.919461   -0.807232   -0.078177
      2          6           0        0.860360    0.251598    0.086659
      3          6           0        1.465919    1.626255   -0.202717
      4         15           0       -1.536145   -0.209084    0.062216
      5          8           0        1.771796   -1.686305   -0.892750
      6          8           0        3.026230   -0.773466    0.679351
      7          8           0        0.461155    2.631496   -0.045938
      8          8           0       -0.209707    0.001995   -0.824466
      9          8           0       -1.797192    1.012186    0.855760
     10          8           0       -2.789729   -0.497126   -0.905848
     11          8           0       -1.326499   -1.459014    1.053645
     12          1           0        0.480779    0.229185    1.107849
     13          1           0        1.845500    1.648667   -1.223906
     14          1           0        2.283168    1.818068    0.492398
     15          1           0        3.706105   -1.453248    0.572975
     16          1           0        0.883776    3.479945   -0.237009
     17          1           0       -3.561389   -0.616320   -0.335804
     18          1           0       -1.158641   -2.231884    0.497627
 ---------------------------------------------------------------------

 SCF Done:  E(RHF) =  -982.487675231     A.U. after   15 cycles

 The electronic state is 1-A.
 Alpha  occ. eigenvalues --  -80.12597 -20.63988 -20.63674 -20.62863 -20.62772
 Alpha  occ. eigenvalues --  -20.56951 -20.56527 -20.48915 -11.41172 -11.33900
 Alpha  occ. eigenvalues --  -11.30180  -7.64835  -5.54682  -5.54658  -5.54530
 Alpha  occ. eigenvalues --   -1.48696  -1.47130  -1.41783  -1.40374  -1.37204
 Alpha  occ. eigenvalues --   -1.35649  -1.26976  -1.07052  -0.91430  -0.86974
 Alpha  occ. eigenvalues --   -0.83536  -0.77829  -0.76613  -0.73069  -0.70709
 Alpha  occ. eigenvalues --   -0.67969  -0.67448  -0.66180  -0.65151  -0.64433
 Alpha  occ. eigenvalues --   -0.62507  -0.60490  -0.58976  -0.56425  -0.55396
 Alpha  occ. eigenvalues --   -0.54070  -0.51616  -0.50649  -0.48746  -0.46609
 Alpha  occ. eigenvalues --   -0.45549  -0.43546  -0.43017
 Alpha virt. eigenvalues --    0.16022   0.16410   0.19429   0.21441   0.22170
 Alpha virt. eigenvalues --    0.26361   0.27692   0.28720   0.32280   0.32761
 Alpha virt. eigenvalues --    0.34741   0.35154   0.37910   0.39641   0.41927

 Mulliken atomic charges:
              1
     1  C    0.764337
     2  C    0.009009
     3  C    0.013928
     4  P    1.623653
     5  O   -0.545920
     6  O   -0.735003
     7  O   -0.710015
     8  O   -0.674218
     9  O   -0.726818
    10  O   -0.773531
    11  O   -0.781832
    12  H    0.263838
    13  H    0.171844
    14  H    0.178045
    15  H    0.490770
    16  H    0.441263
    17  H    0.503212
    18  H    0.487437
 Sum of Mulliken atomic charges =   0.00000

 Dipole moment (field-independent basis, Debye):
    X=              3.3128    Y=             -2.3895    Z=              0.0812  Tot=              4.0855
 Quadrupole moment (field-independent basis, Debye-Ang):
   XX=            -51.8765   YY=            -62.1569   ZZ=            -78.1213
   XY=             11.9599   XZ=              3.8300   YZ=             -7.5054

 Normal termination of Gaussian 09 at Wed Sep 16 21:36:31 2015.
