 Gaussian 09, Revision D.01,
 Gaussian 09:  ES64L-G09RevD.01 24-Apr-2013

 ----------------------------------------------
 #HF/6-31G* Test Pop=MK iop(6/33=2) iop(6/42=6)
 ----------------------------------------------

 -------
 F6P.pdb
 -------
 Symbolic Z-matrix:
 Charge = -2 Multiplicity = 1

                         Standard orientation:
 ---------------------------------------------------------------------
 Center     Atomic      Atomic             Coordinates (Angstroms)
 Number     Number       Type             X           Y           Z
 ---------------------------------------------------------------------
      1          8           0       -2.829641   -2.816965   -0.507941
      2          6           0       -3.138693   -1.445752   -0.766489
      3          6           0       -2.303627   -0.552911    0.152402
      4          8           0       -2.585035   -0.866214    1.517616
      5          6           0       -2.627068    0.930171   -0.121744
      6          8           0       -3.518990    1.454084    0.863448
      7          6           0       -1.227778    1.596932   -0.012980
      8          8           0       -1.151374    2.773220   -0.820678
      9          6           0       -0.320482    0.474309   -0.576083
     10          8           0       -0.909921   -0.750964   -0.112631
     11          6           0        1.102760    0.616496   -0.033428
     12          8           0        1.904982   -0.463170   -0.513344
     13         15           0        3.381171   -0.251355    0.091837
     14          8           0        3.314635   -0.262270    1.569749
     15          8           0        4.343516   -1.440397   -0.409677
     16          8           0        3.968559    1.161407   -0.407469
     17          1           0       -3.376803   -3.343714   -1.107654
     18          1           0       -2.910260   -1.211127   -1.806034
     19          1           0       -4.198131   -1.270037   -0.578769
     20          1           0       -2.365161   -1.798847    1.642147
     21          1           0       -3.041069    1.057507   -1.122564
     22          1           0       -3.607179    2.401056    0.685649
     23          1           0       -0.979214    1.819260    1.023811
     24          1           0       -1.736946    3.428296   -0.414998
     25          1           0       -0.314797    0.503571   -1.665736
     26          1           0        1.527337    1.561717   -0.371279
     27          1           0        1.080133    0.597329    1.055205
 ---------------------------------------------------------------------

 SCF Done:  E(RHF) =  -1247.94780182     A.U. after   14 cycles

 The electronic state is 1-A.
 Alpha  occ. eigenvalues --  -79.63462 -20.42080 -20.41896 -20.40839 -20.39106
 Alpha  occ. eigenvalues --  -20.37143 -20.24261 -20.06687 -20.05739 -20.05139
 Alpha  occ. eigenvalues --  -11.17409 -11.12807 -11.12762 -11.10670 -11.07042
 Alpha  occ. eigenvalues --  -10.99818  -7.15539  -5.05523  -5.05310  -5.05201
 Alpha  occ. eigenvalues --   -1.23911  -1.21401  -1.19697  -1.19561  -1.14939
 Alpha  occ. eigenvalues --   -1.05986  -0.87986  -0.87242  -0.84127  -0.79079
 Alpha  occ. eigenvalues --   -0.76663  -0.75566  -0.66546  -0.63145  -0.58548
 Alpha  occ. eigenvalues --   -0.56919  -0.54654  -0.53379  -0.50271  -0.48688
 Alpha  occ. eigenvalues --   -0.47031  -0.45460  -0.44049  -0.41258  -0.39998
 Alpha  occ. eigenvalues --   -0.39764  -0.38212  -0.36425  -0.34901  -0.33666
 Alpha  occ. eigenvalues --   -0.32838  -0.30838  -0.30674  -0.29284  -0.27373
 Alpha  occ. eigenvalues --   -0.25990  -0.24099  -0.22427  -0.18164  -0.17912
 Alpha  occ. eigenvalues --   -0.11934  -0.10376  -0.05494  -0.02330  -0.01905
 Alpha  occ. eigenvalues --    0.01089   0.02352   0.04815
 Alpha virt. eigenvalues --    0.32581   0.35354   0.39738   0.42192   0.44446
 Alpha virt. eigenvalues --    0.45564   0.47285   0.47656   0.49182   0.51746
 Alpha virt. eigenvalues --    0.52183   0.53370   0.57317   0.58311   0.60895

 Mulliken charges:
               1
     1  O   -0.745835
     2  C    0.008135
     3  C    0.656007
     4  O   -0.771533
     5  C    0.080416
     6  O   -0.745441
     7  C    0.091249
     8  O   -0.751699
     9  C    0.145494
    10  O   -0.652346
    11  C    0.032221
    12  O   -0.721261
    13  P    1.421674
    14  O   -0.908797
    15  O   -0.981362
    16  O   -1.009835
    17  H    0.425678
    18  H    0.142843
    19  H    0.131479
    20  H    0.459637
    21  H    0.156948
    22  H    0.411862
    23  H    0.200600
    24  H    0.408142
    25  H    0.160370
    26  H    0.183562
    27  H    0.171789
 Sum of Mulliken charges =  -2.00000

 Dipole moment (field-independent basis, Debye):
    X=            -35.7112    Y=              4.0283    Z=             -3.3518  Tot=             36.0937
 Quadrupole moment (field-independent basis, Debye-Ang):
   XX=           -248.2471   YY=           -109.5222   ZZ=           -116.2412
   XY=              8.0578   XZ=              9.4684   YZ=              5.6436

 ESP charges:
               1
     1  O   -0.684559
     2  C    0.052531
     3  C    0.650887
     4  O   -0.712925
     5  C    0.203038
     6  O   -0.696183
     7  C    0.090225
     8  O   -0.703950
     9  C    0.401838
    10  O   -0.509505
    11  C    0.251066
    12  O   -0.604335
    13  P    1.351568
    14  O   -0.926582
    15  O   -0.983676
    16  O   -0.991490
    17  H    0.434244
    18  H    0.028018
    19  H    0.020719
    20  H    0.459911
    21  H   -0.019023
    22  H    0.411307
    23  H    0.074703
    24  H    0.411717
    25  H   -0.008073
    26  H    0.009016
    27  H   -0.010486
 Sum of ESP charges =  -2.00000

 Normal termination of Gaussian 09 at Mon Apr  3 03:34:00 2017.
