 Gaussian 09, Revision D.01,
 Gaussian 09:  ES64L-G09RevD.01 24-Apr-2013

 ----------------------------------------------
 #HF/6-31G* Test Pop=MK iop(6/33=2) iop(6/42=6)
 ----------------------------------------------

 ------------------------
 H2PO4_representative.pdb
 ------------------------
 Symbolic Z-matrix:
 Charge = -1 Multiplicity = 1

                         Standard orientation:
 ---------------------------------------------------------------------
 Center     Atomic      Atomic             Coordinates (Angstroms)
 Number     Number       Type             X           Y           Z
 ---------------------------------------------------------------------
      1         15           0       -0.071327   -0.042289    0.011629
      2          8           0       -1.385600   -0.311932   -0.663107
      3          8           0       -0.271653    0.209481    1.487697
      4          8           0        0.912119   -1.125858   -0.249528
      5          8           0        0.495205    1.249570   -0.597815
      6          1           0        1.743124   -0.955590    0.177940
      7          1           0        1.326210    1.419838   -0.170347
 ---------------------------------------------------------------------

 SCF Done:  E(RHF) =  -641.419548023     A.U. after   13 cycles

 The electronic state is 1-A.
 Alpha  occ. eigenvalues --  -79.83849 -20.43026 -20.40795 -20.25119 -20.24605
 Alpha  occ. eigenvalues --   -7.36812  -5.26787  -5.26602  -5.26411  -1.29217
 Alpha  occ. eigenvalues --   -1.22070  -1.05054  -0.99741  -0.65424  -0.58743
 Alpha  occ. eigenvalues --   -0.50825  -0.45150  -0.43201  -0.36174  -0.35034
 Alpha  occ. eigenvalues --   -0.28462  -0.23867  -0.22319  -0.18882  -0.16546
 Alpha virt. eigenvalues --    0.32840   0.40950   0.53342   0.54986   0.57784
 Alpha virt. eigenvalues --    0.59574   0.75527   0.79521   0.80800   0.84998
 Alpha virt. eigenvalues --    1.05891   1.13056   1.20197   1.22160   1.29599

 Mulliken charges:
               1
     1  P    1.297940
     2  O   -0.838745
     3  O   -0.866600
     4  O   -0.716848
     5  O   -0.744092
     6  H    0.444907
     7  H    0.423438
 Sum of Mulliken charges =  -1.00000

 Dipole moment (field-independent basis, Debye):
    X=              7.6644    Y=              0.3947    Z=             -0.8821  Tot=              7.7251
 Quadrupole moment (field-independent basis, Debye-Ang):
   XX=            -36.4358   YY=            -38.8646   ZZ=            -47.8468
   XY=             -0.0701   XZ=             -0.1149   YZ=             -1.4521

 ESP charges:
               1
     1  P    1.409388
     2  O   -0.853250
     3  O   -0.939549
     4  O   -0.726156
     5  O   -0.720192
     6  H    0.432667
     7  H    0.397092
 Sum of ESP charges =  -1.00000

 Normal termination of Gaussian 09 at Fri Sep 30 06:21:35 2016.
