 Gaussian 09, Revision C.01,
 Gaussian 09:  AM64L-G09RevC.01 23-Sep-2011

 ------------------------------------------------------------
 #HF/6-31G* SCF=tight Test Pop=MK iop(6/33=2) iop(6/42=6) opt
 ------------------------------------------------------------

 99/9=1/99;
 ---------------------
 remark line goes here
 ---------------------
 Charge = -2 Multiplicity = 1

 SCF Done:  E(RHF) =  -1361.73291612     A.U. after   19 cycles
 SCF Done:  E(RHF) =  -1361.81725410     A.U. after   18 cycles
 SCF Done:  E(RHF) =  -1361.78215290     A.U. after   16 cycles
 SCF Done:  E(RHF) =  -1361.86721394     A.U. after   16 cycles
 SCF Done:  E(RHF) =  -1361.88145966     A.U. after   16 cycles
 SCF Done:  E(RHF) =  -1361.89327816     A.U. after   16 cycles
 SCF Done:  E(RHF) =  -1361.90406473     A.U. after   16 cycles
 SCF Done:  E(RHF) =  -1361.91275113     A.U. after   17 cycles
 SCF Done:  E(RHF) =  -1361.91996453     A.U. after   14 cycles
 SCF Done:  E(RHF) =  -1361.92493949     A.U. after   15 cycles
 SCF Done:  E(RHF) =  -1362.02012704     A.U. after   14 cycles
 SCF Done:  E(RHF) =  -1362.02023705     A.U. after   13 cycles
 SCF Done:  E(RHF) =  -1362.02043710     A.U. after   13 cycles
 SCF Done:  E(RHF) =  -1362.02051302     A.U. after   12 cycles
 SCF Done:  E(RHF) =  -1362.02052303     A.U. after   11 cycles
 SCF Done:  E(RHF) =  -1362.02053912     A.U. after   10 cycles
 SCF Done:  E(RHF) =  -1362.02054391     A.U. after   10 cycles
 SCF Done:  E(RHF) =  -1362.02054648     A.U. after   11 cycles
 SCF Done:  E(RHF) =  -1362.02054690     A.U. after    9 cycles
 SCF Done:  E(RHF) =  -1362.02054712     A.U. after    8 cycles
 Optimization completed.
    -- Stationary point found.

                         Standard orientation:
 ---------------------------------------------------------------------
 Center     Atomic      Atomic             Coordinates (Angstroms)
 Number     Number       Type             X           Y           Z
 ---------------------------------------------------------------------
      1          1           0        1.073132    2.189144    1.719845
      2          6           0        0.802108    1.478075    0.936466
      3          6           0       -0.390592    2.200283    0.258232
      4          6           0       -1.036745    1.558746   -0.983677
      5          8           0       -1.061865    0.169973   -1.005477
      6         15           0       -2.311885   -0.662226   -0.148434
      7          8           0       -1.819118   -2.079022   -0.234270
      8          6           0        2.111277    1.267672    0.137897
      9          6           0        2.262575   -0.012079   -0.703569
     10          8           0        0.501257    0.258857    1.530430
     11          8           0       -2.147729   -0.045324    1.240723
     12          8           0       -3.568065   -0.302864   -0.856278
     13          8           0        2.409436    2.374235   -0.695277
     14          1           0        2.904406    1.223741    0.873128
     15          1           0       -0.453510    0.070169    1.515412
     16          8           0       -1.346484    2.486806    1.244195
     17          1           0       -0.006449    3.166265   -0.061239
     18          1           0       -2.039877    1.962231   -1.075412
     19          1           0       -0.478828    1.880780   -1.863975
     20          1           0        1.941106    2.223229   -1.507461
     21          1           0       -1.836935    1.662151    1.387329
     22          1           0        3.285303    0.027933   -1.069340
     23          6           0        2.216090   -1.317346    0.105613
     24          8           0        1.467390    0.002024   -1.850909
     25          1           0        0.539080   -0.108004   -1.606225
     26          6           0        1.263406   -2.444742   -0.308526
     27          8           0        3.056970   -1.486944    0.941891
     28          8           0        0.537135   -2.970011    0.744338
     29          1           0        0.602012   -2.128923   -1.097355
     30          1           0        1.924845   -3.213330   -0.718477
     31          1           0       -0.376137   -2.667491    0.600723
 ---------------------------------------------------------------------

 The electronic state is 1-A.
 Alpha  occ. eigenvalues --  -79.73529 -20.35307 -20.33377 -20.31866 -20.28897
 Alpha  occ. eigenvalues --  -20.28763 -20.28569 -20.28472 -20.19337 -20.18255
 Alpha  occ. eigenvalues --  -20.16925 -11.09560 -11.06276 -11.05913 -11.03773
 Alpha  occ. eigenvalues --  -11.03392 -11.03199 -11.02723  -7.25785  -5.15711
 Alpha  occ. eigenvalues --   -5.15564  -5.15536  -1.17522  -1.16234  -1.13822
 Alpha  occ. eigenvalues --   -1.12366  -1.09877  -1.09586  -1.08896  -1.00851
 Alpha  occ. eigenvalues --   -0.94007  -0.92976  -0.80698  -0.76549  -0.72831
 Alpha  occ. eigenvalues --   -0.69210  -0.62259  -0.55504  -0.53440  -0.49760
 Alpha  occ. eigenvalues --   -0.47503  -0.46881  -0.45299  -0.43916  -0.41903
 Alpha  occ. eigenvalues --   -0.41616  -0.39949  -0.39069  -0.38740  -0.37416
 Alpha  occ. eigenvalues --   -0.36129  -0.35238  -0.33858  -0.32310  -0.32012
 Alpha  occ. eigenvalues --   -0.30423  -0.29481  -0.27983  -0.27364  -0.26557
 Alpha  occ. eigenvalues --   -0.25157  -0.24741  -0.24262  -0.23332  -0.22456
 Alpha  occ. eigenvalues --   -0.21817  -0.20496  -0.17426  -0.16641  -0.15742
 Alpha  occ. eigenvalues --   -0.15286  -0.14870  -0.13981  -0.12243  -0.10905
 Alpha  occ. eigenvalues --   -0.08539
 Alpha virt. eigenvalues --    0.38775   0.43718   0.46714   0.50623   0.51208
 Alpha virt. eigenvalues --    0.51840   0.53287   0.55130   0.56067   0.56793
 Alpha virt. eigenvalues --    0.58528   0.59019   0.60359   0.60983   0.62552

 Mulliken atomic charges:
              1
     1  H    0.112301
     2  C    0.216985
     3  C    0.122929
     4  C    0.001482
     5  O   -0.837608
     6  P    1.572680
     7  O   -0.902811
     8  C    0.134955
     9  C    0.081440
    10  O   -0.852624
    11  O   -0.969429
    12  O   -0.860139
    13  O   -0.801696
    14  H    0.163806
    15  H    0.541290
    16  O   -0.840397
    17  H    0.112924
    18  H    0.171141
    19  H    0.091278
    20  H    0.451265
    21  H    0.516026
    22  H    0.153093
    23  C    0.522433
    24  O   -0.860150
    25  H    0.561735
    26  C   -0.022114
    27  O   -0.602205
    28  O   -0.807752
    29  H    0.196974
    30  H    0.095193
    31  H    0.536995
 Sum of Mulliken atomic charges =  -2.00000

 Dipole moment (field-independent basis, Debye):
    X=              9.0767    Y=              4.9718    Z=             -3.3002  Tot=             10.8626
 Quadrupole moment (field-independent basis, Debye-Ang):
   XX=           -186.6020   YY=           -153.5656   ZZ=           -134.2493
   XY=             -4.2187   XZ=             -8.8544   YZ=              0.1693

 Normal termination of Gaussian 09 at Wed Jul  9 21:35:59 2014.
