 Gaussian 09, Revision D.01,
 Gaussian 09:  ES64L-G09RevD.01 24-Apr-2013

 ----------------------------------------------
 #HF/6-31G* Test Pop=MK iop(6/33=2) iop(6/42=6)
 ----------------------------------------------

 -------------
 S7P_ideal.pdb
 -------------
 Symbolic Z-matrix:
 Charge = -2 Multiplicity = 1

                         Standard orientation:
 ---------------------------------------------------------------------
 Center     Atomic      Atomic             Coordinates (Angstroms)
 Number     Number       Type             X           Y           Z
 ---------------------------------------------------------------------
      1          8           0        4.992058    0.605804    1.245401
      2         15           0        4.610375   -0.131759   -0.133127
      3          8           0        4.832042    0.793801   -1.266450
      4          8           0        5.535319   -1.436531   -0.318204
      5          8           0        3.063007   -0.572780   -0.095987
      6          6           0        1.987469    0.367075   -0.045601
      7          6           0        0.654318   -0.383659   -0.020054
      8          8           0        0.554935   -1.136555    1.190547
      9          6           0       -0.498357    0.620042   -0.092838
     10          8           0       -0.398975    1.372938   -1.303439
     11          6           0       -1.830513   -0.131686   -0.067138
     12          8           0       -1.930896   -0.884576    1.143468
     13          6           0       -2.983189    0.872015   -0.139921
     14          8           0       -2.848584    1.829318    0.912285
     15          6           0       -4.293720    0.143730    0.008518
     16          8           0       -4.907197    0.210503    1.046882
     17          6           0       -4.839895   -0.667655   -1.138766
     18          8           0       -6.083706   -1.257698   -0.755427
     19          1           0        2.078501    0.976259    0.853533
     20          1           0        2.025556    1.009793   -0.925522
     21          1           0        0.602090   -1.059823   -0.874312
     22          1           0        0.594179   -0.598189    1.992842
     23          1           0       -0.446134    1.296048    0.760432
     24          1           0       -0.438224    0.833584   -2.105577
     25          1           0       -1.883736   -0.807687   -0.920403
     26          1           0       -1.890647   -0.345228    1.945601
     27          1           0       -2.959166    1.384241   -1.102325
     28          1           0       -2.862199    1.443708    1.798835
     29          1           0       -4.994711   -0.020041   -2.000294
     30          1           0       -4.129332   -1.453436   -1.397134
     31          1           0       -6.492512   -1.795804   -1.446595
 ---------------------------------------------------------------------

 SCF Done:  E(RHF) =  -1361.81108890     A.U. after   16 cycles

 The electronic state is 1-A.
 Alpha  occ. eigenvalues --  -79.63811 -20.46256 -20.44314 -20.43689 -20.42535
 Alpha  occ. eigenvalues --  -20.41072 -20.35293 -20.24255 -20.06719 -20.05557
 Alpha  occ. eigenvalues --  -20.05488 -11.21132 -11.18904 -11.16845 -11.15509
 Alpha  occ. eigenvalues --  -11.12062 -11.07942 -11.02060  -7.15778  -5.05784
 Alpha  occ. eigenvalues --   -5.05546  -5.05437  -1.28586  -1.25054  -1.23625
 Alpha  occ. eigenvalues --   -1.21483  -1.20263  -1.14955  -1.05442  -0.93253
 Alpha  occ. eigenvalues --   -0.88155  -0.87536  -0.82893  -0.79050  -0.76656
 Alpha  occ. eigenvalues --   -0.75534  -0.68574  -0.64270  -0.62012  -0.60930
 Alpha  occ. eigenvalues --   -0.57015  -0.55905  -0.54733  -0.54085  -0.52759
 Alpha  occ. eigenvalues --   -0.51398  -0.48355  -0.47001  -0.44259  -0.42049
 Alpha  occ. eigenvalues --   -0.41508  -0.41073  -0.40703  -0.40348  -0.38207
 Alpha  occ. eigenvalues --   -0.37420  -0.36277  -0.35140  -0.34137  -0.33039
 Alpha  occ. eigenvalues --   -0.32329  -0.30819  -0.28668  -0.28028  -0.23878
 Alpha  occ. eigenvalues --   -0.21948  -0.18818  -0.17980  -0.11884  -0.10641
 Alpha  occ. eigenvalues --   -0.05541  -0.02289  -0.01957   0.01082   0.02292
 Alpha  occ. eigenvalues --    0.04758
 Alpha virt. eigenvalues --    0.27777   0.30742   0.31803   0.34751   0.37016
 Alpha virt. eigenvalues --    0.39913   0.40860   0.43329   0.44266   0.45212
 Alpha virt. eigenvalues --    0.46239   0.49414   0.51469   0.53041   0.54379

 Mulliken charges:
               1
     1  O   -1.006566
     2  P    1.404051
     3  O   -0.912094
     4  O   -0.981279
     5  O   -0.724620
     6  C    0.092297
     7  C    0.133968
     8  O   -0.744204
     9  C    0.138648
    10  O   -0.771511
    11  C    0.121099
    12  O   -0.739097
    13  C    0.079679
    14  O   -0.759194
    15  C    0.521467
    16  O   -0.533816
    17  C   -0.062473
    18  O   -0.738064
    19  H    0.122240
    20  H    0.159792
    21  H    0.153490
    22  H    0.416632
    23  H    0.179764
    24  H    0.432637
    25  H    0.164622
    26  H    0.423766
    27  H    0.204326
    28  H    0.444102
    29  H    0.160346
    30  H    0.185802
    31  H    0.434191
 Sum of Mulliken charges =  -2.00000

 Dipole moment (field-independent basis, Debye):
    X=            -44.1183    Y=              0.8339    Z=             -3.1592  Tot=             44.2392
 Quadrupole moment (field-independent basis, Debye-Ang):
   XX=           -390.6483   YY=           -139.5590   ZZ=           -112.3971
   XY=             14.2892   XZ=             24.7630   YZ=              7.9045

 ESP charges:
               1
     1  O   -0.995499
     2  P    1.392530
     3  O   -0.944477
     4  O   -0.987066
     5  O   -0.649477
     6  C    0.201600
     7  C    0.560303
     8  O   -0.751508
     9  C    0.178266
    10  O   -0.662800
    11  C    0.415560
    12  O   -0.732368
    13  C   -0.063637
    14  O   -0.608312
    15  C    0.703647
    16  O   -0.554959
    17  C    0.081934
    18  O   -0.688860
    19  H   -0.015187
    20  H   -0.011976
    21  H   -0.021202
    22  H    0.404599
    23  H    0.022443
    24  H    0.360399
    25  H   -0.039570
    26  H    0.429119
    27  H    0.083719
    28  H    0.388965
    29  H    0.012779
    30  H    0.050767
    31  H    0.440266
 Sum of ESP charges =  -2.00000

 Normal termination of Gaussian 09 at Tue May 31 17:20:50 2016.
