 Gaussian 09, Revision D.01,
 Gaussian 09:  ES64L-G09RevD.01 24-Apr-2013

 ----------------------------------------------
 #HF/6-31G* Test Pop=MK iop(6/33=2) iop(6/42=6)
 ----------------------------------------------

 ---------------------
 Pi_representative.pdb
 ---------------------
 Symbolic Z-matrix:
 Charge = -2 Multiplicity = 1

                         Standard orientation:
 ---------------------------------------------------------------------
 Center     Atomic      Atomic             Coordinates (Angstroms)
 Number     Number       Type             X           Y           Z
 ---------------------------------------------------------------------
      1         15           0       -0.093762    0.043013    0.032678
      2          8           0       -1.467764   -0.432230   -0.279373
      3          8           0        0.561305   -0.767116    1.142206
      4          8           0        0.058645    1.461124    0.263266
      5          8           0        0.812335   -0.338112   -1.077648
      6          1           0        1.690268   -0.034509   -0.877789
 ---------------------------------------------------------------------

 SCF Done:  E(RHF) =  -640.652542792     A.U. after   12 cycles

 The electronic state is 1-A.
 Alpha  occ. eigenvalues --  -79.56037 -20.17042 -20.02945 -20.02916 -19.99559
 Alpha  occ. eigenvalues --   -7.09246  -4.99268  -4.99001  -4.98877  -1.03191
 Alpha  occ. eigenvalues --   -0.86342  -0.79844  -0.75925  -0.38891  -0.25367
 Alpha  occ. eigenvalues --   -0.19690  -0.17854  -0.10691  -0.08913  -0.03689
 Alpha  occ. eigenvalues --   -0.01840  -0.00618   0.02310   0.05564   0.07537
 Alpha virt. eigenvalues --    0.57878   0.73183   0.76844   0.78639   0.82338
 Alpha virt. eigenvalues --    1.03898   1.06915   1.09838   1.10101   1.35226
 Alpha virt. eigenvalues --    1.44429   1.44685   1.49015   1.52097   1.57288

 Mulliken charges:
               1
     1  P    1.172957
     2  O   -0.929098
     3  O   -1.002428
     4  O   -0.907816
     5  O   -0.742399
     6  H    0.408785
 Sum of Mulliken charges =  -2.00000

 Dipole moment (field-independent basis, Debye):
    X=              3.3659    Y=              0.3348    Z=             -3.1906  Tot=              4.6499
 Quadrupole moment (field-independent basis, Debye-Ang):
   XX=            -44.4015   YY=            -50.5955   ZZ=            -46.4220
   XY=             -0.2186   XZ=             -4.9949   YZ=              0.9189

 ESP charges:
               1
     1  P    1.558571
     2  O   -1.006398
     3  O   -1.094575
     4  O   -1.050786
     5  O   -0.831166
     6  H    0.424353
 Sum of ESP charges =  -2.00000

 Normal termination of Gaussian 09 at Sat Aug  6 13:49:08 2016.
