 Gaussian 09, Revision C.01,
 Gaussian 09:  AM64L-G09RevC.01 23-Sep-2011

 ------------------------------------------------------------
 #HF/6-31G* SCF=tight Test Pop=MK iop(6/33=2) iop(6/42=6) opt
 ------------------------------------------------------------

 99/9=1/99;
 -------
 PEP.pdb
 -------
 Charge = -3 Multiplicity = 1

 SCF Done:  E(RHF) =  -904.339890296     A.U. after   15 cycles
 SCF Done:  E(RHF) =  -904.393213076     A.U. after   15 cycles
 SCF Done:  E(RHF) =  -904.415548978     A.U. after   16 cycles
 SCF Done:  E(RHF) =  -904.413720791     A.U. after   16 cycles
 SCF Done:  E(RHF) =  -904.416064989     A.U. after   16 cycles
 SCF Done:  E(RHF) =  -904.426799864     A.U. after   13 cycles
 SCF Done:  E(RHF) =  -904.429290005     A.U. after   15 cycles
 SCF Done:  E(RHF) =  -904.430650068     A.U. after   15 cycles
 SCF Done:  E(RHF) =  -904.430965645     A.U. after   13 cycles
 SCF Done:  E(RHF) =  -904.431045024     A.U. after   12 cycles
 SCF Done:  E(RHF) =  -904.431138807     A.U. after   12 cycles
 SCF Done:  E(RHF) =  -904.431207667     A.U. after   13 cycles
 SCF Done:  E(RHF) =  -904.431265359     A.U. after   11 cycles
 SCF Done:  E(RHF) =  -904.431302058     A.U. after   12 cycles
 SCF Done:  E(RHF) =  -904.431310018     A.U. after   11 cycles
 SCF Done:  E(RHF) =  -904.431323170     A.U. after   12 cycles
 SCF Done:  E(RHF) =  -904.431324823     A.U. after    9 cycles
 SCF Done:  E(RHF) =  -904.431326268     A.U. after   10 cycles
 SCF Done:  E(RHF) =  -904.431326746     A.U. after    9 cycles
 SCF Done:  E(RHF) =  -904.431326957     A.U. after    9 cycles
 Optimization completed.
    -- Stationary point found.

                         Standard orientation:
 ---------------------------------------------------------------------
 Center     Atomic      Atomic             Coordinates (Angstroms)
 Number     Number       Type             X           Y           Z
 ---------------------------------------------------------------------
      1          6           0       -2.431671   -0.316755    0.041020
      2          8           0       -2.561790   -1.474686   -0.374020
      3          8           0       -3.337272    0.392693    0.526993
      4          6           0       -1.025469    0.346638   -0.106097
      5          6           0       -0.979816    1.660623   -0.358829
      6          8           0        0.006600   -0.473559   -0.028082
      7         15           0        1.735474   -0.089336    0.053148
      8          8           0        1.898695    0.584082    1.392921
      9          8           0        2.321029   -1.474705   -0.044733
     10          8           0        1.989157    0.798736   -1.141978
     11          1           0       -0.044851    2.153312   -0.544373
     12          1           0       -1.896859    2.223201   -0.358222
 ---------------------------------------------------------------------

 The electronic state is 1-A.
 Alpha  occ. eigenvalues --  -79.53593 -20.08216 -20.04273 -20.04228 -19.97765
 Alpha  occ. eigenvalues --  -19.97606 -19.97589 -10.88281 -10.83854 -10.74738
 Alpha  occ. eigenvalues --   -7.05689  -4.95634  -4.95449  -4.95436  -0.93075
 Alpha  occ. eigenvalues --   -0.89627  -0.81740  -0.80396  -0.72472  -0.72376
 Alpha  occ. eigenvalues --   -0.55698  -0.37653  -0.26968  -0.21178  -0.20319
 Alpha  occ. eigenvalues --   -0.15209  -0.13805  -0.12152  -0.10827  -0.08829
 Alpha  occ. eigenvalues --   -0.06848  -0.04358  -0.03462   0.01764   0.04137
 Alpha  occ. eigenvalues --    0.04269   0.04752   0.05457   0.06890   0.08393
 Alpha  occ. eigenvalues --    0.08754   0.11979   0.13038
 Alpha virt. eigenvalues --    0.62118   0.71758   0.74528   0.76411   0.79350
 Alpha virt. eigenvalues --    0.83720   0.85449   0.85899   0.89502   0.95298
 Alpha virt. eigenvalues --    0.97122   1.02057   1.03598   1.07031   1.09785

 Mulliken atomic charges:
              1
     1  C    0.662536
     2  O   -0.773801
     3  O   -0.817487
     4  C    0.423307
     5  C   -0.575589
     6  O   -0.796640
     7  P    1.458433
     8  O   -0.939938
     9  O   -0.926625
    10  O   -0.950327
    11  H    0.161476
    12  H    0.074655
 Sum of Mulliken atomic charges =  -3.00000

 Dipole moment (field-independent basis, Debye):
    X=             -1.6318    Y=              2.1061    Z=             -0.6688  Tot=              2.7469
 Quadrupole moment (field-independent basis, Debye-Ang):
   XX=           -155.7992   YY=            -92.0325   ZZ=            -82.0770
   XY=             -1.4920   XZ=              1.6834   YZ=             -2.5548

 Normal termination of Gaussian 09 at Wed Sep 16 23:17:01 2015.
