 Gaussian 09, Revision C.01,
 Gaussian 09:  AM64L-G09RevC.01 23-Sep-2011

 ----------------------------------------------
 #HF/6-31G* Test Pop=MK iop(6/33=2) iop(6/42=6)
 ----------------------------------------------

 99/5=1,9=1/99;
 --------
 16 atoms
 --------
 Charge = -2 Multiplicity = 1

                         Standard orientation:
 ---------------------------------------------------------------------
 Center     Atomic      Atomic             Coordinates (Angstroms)
 Number     Number       Type             X           Y           Z
 ---------------------------------------------------------------------
      1          6           0        1.526225    1.555599   -0.167687
      2          8           0        0.546364    2.587863   -0.030048
      3          6           0        0.875811    0.197183    0.100247
      4          8           0       -0.178520   -0.018475   -0.837502
      5         15           0       -1.531311   -0.196187    0.016061
      6          8           0       -1.381376   -1.448620    1.000404
      7          6           0        1.908672   -0.890133   -0.044411
      8          8           0        2.997369   -0.890592    0.739593
      9          8           0        1.756257   -1.761221   -0.866652
     10          8           0       -1.777292    1.028481    0.809182
     11          8           0       -2.768732   -0.444892   -0.983200
     12          1           0        0.471246    0.181002    1.111918
     13          1           0        1.930789    1.571780   -1.179359
     14          1           0        2.331506    1.721490    0.547767
     15          1           0        0.996939    3.424975   -0.206710
     16          1           0       -2.177625   -1.552698    1.502365
 ---------------------------------------------------------------------

 SCF Done:  E(RHF) =  -981.244405875     A.U. after   15 cycles

 The electronic state is 1-A.
 Alpha  occ. eigenvalues --  -79.75473 -20.31092 -20.30415 -20.28499 -20.17889
 Alpha  occ. eigenvalues --  -20.15452 -20.15116 -20.14807 -11.02175 -11.01170
 Alpha  occ. eigenvalues --  -10.99915  -7.27628  -5.17535  -5.17455  -5.17278
 Alpha  occ. eigenvalues --   -1.13187  -1.10513  -1.08473  -1.04685  -0.95002
 Alpha  occ. eigenvalues --   -0.90349  -0.86991  -0.74066  -0.59047  -0.51798
 Alpha  occ. eigenvalues --   -0.46141  -0.42070  -0.39590  -0.36628  -0.35408
 Alpha  occ. eigenvalues --   -0.34443  -0.31905  -0.28602  -0.27185  -0.26614
 Alpha  occ. eigenvalues --   -0.24309  -0.23096  -0.20957  -0.19856  -0.18486
 Alpha  occ. eigenvalues --   -0.16897  -0.12624  -0.11962  -0.08363  -0.07537
 Alpha  occ. eigenvalues --   -0.06239  -0.05759  -0.05408
 Alpha virt. eigenvalues --    0.44735   0.47699   0.52127   0.54899   0.56098
 Alpha virt. eigenvalues --    0.60437   0.62106   0.63968   0.66273   0.66932
 Alpha virt. eigenvalues --    0.70515   0.72812   0.74071   0.77226   0.83977

 Mulliken atomic charges:
              1
     1  C    0.011177
     2  O   -0.709705
     3  C    0.034674
     4  O   -0.690914
     5  P    1.516512
     6  O   -0.824449
     7  C    0.715674
     8  O   -0.888601
     9  O   -0.675363
    10  O   -0.847066
    11  O   -0.926097
    12  H    0.196141
    13  H    0.115488
    14  H    0.137974
    15  H    0.384343
    16  H    0.450211
 Sum of Mulliken atomic charges =  -2.00000

 Dipole moment (field-independent basis, Debye):
    X=              0.6701    Y=              4.9285    Z=              2.1904  Tot=              5.4348
 Quadrupole moment (field-independent basis, Debye-Ang):
   XX=           -133.1301   YY=            -86.4307   ZZ=            -81.8789
   XY=             23.8889   XZ=            -13.4580   YZ=             -9.1786

 Normal termination of Gaussian 09 at Wed Sep 16 21:38:21 2015.
