 Gaussian 09, Revision D.01,
 Gaussian 09:  ES64L-G09RevD.01 24-Apr-2013

 ------------------------------------------------------------
 #HF/6-31G* SCF=tight Test Pop=MK iop(6/33=2) iop(6/42=6) opt
 ------------------------------------------------------------

 -------
 F6P.pdb
 -------
 Symbolic Z-matrix:
 Charge = -2 Multiplicity = 1

 SCF Done:  E(RHF) =  -1247.94780182     A.U. after   14 cycles
 SCF Done:  E(RHF) =  -1247.98968870     A.U. after   12 cycles
 SCF Done:  E(RHF) =  -1248.00701030     A.U. after   12 cycles
 SCF Done:  E(RHF) =  -1248.01191685     A.U. after   12 cycles
 SCF Done:  E(RHF) =  -1248.01539176     A.U. after   12 cycles
 SCF Done:  E(RHF) =  -1248.01864415     A.U. after   13 cycles
 SCF Done:  E(RHF) =  -1248.02253546     A.U. after   13 cycles
 SCF Done:  E(RHF) =  -1248.02806694     A.U. after   14 cycles
 SCF Done:  E(RHF) =  -1248.03144611     A.U. after   12 cycles
 SCF Done:  E(RHF) =  -1248.03944642     A.U. after   13 cycles
 SCF Done:  E(RHF) =  -1248.10668101     A.U. after   11 cycles
 SCF Done:  E(RHF) =  -1248.10674956     A.U. after   10 cycles
 SCF Done:  E(RHF) =  -1248.10675573     A.U. after    9 cycles
 SCF Done:  E(RHF) =  -1248.10676163     A.U. after    8 cycles
 SCF Done:  E(RHF) =  -1248.10676718     A.U. after    8 cycles
 SCF Done:  E(RHF) =  -1248.10677309     A.U. after    8 cycles
 SCF Done:  E(RHF) =  -1248.10677850     A.U. after    8 cycles
 SCF Done:  E(RHF) =  -1248.10678241     A.U. after    8 cycles
 SCF Done:  E(RHF) =  -1248.10678331     A.U. after    8 cycles
 SCF Done:  E(RHF) =  -1248.10678353     A.U. after    7 cycles
 Optimization completed.
    -- Stationary point found.

                         Standard orientation:
 ---------------------------------------------------------------------
 Center     Atomic      Atomic             Coordinates (Angstroms)
 Number     Number       Type             X           Y           Z
 ---------------------------------------------------------------------
      1          8           0       -3.822703   -1.697525    0.299029
      2          6           0       -3.503090   -0.343749    0.116442
      3          6           0       -2.001646   -0.122068    0.015206
      4          8           0       -1.450004   -0.847271    1.068081
      5          6           0       -1.565631    1.347092    0.057408
      6          8           0       -1.719777    1.944669    1.315091
      7          6           0       -0.132164    1.178908   -0.415054
      8          8           0        0.533046    2.317770   -0.853742
      9          6           0       -0.268277    0.079656   -1.485213
     10          8           0       -1.540991   -0.540916   -1.231186
     11          6           0        0.818459   -1.015524   -1.499466
     12          8           0        2.076356   -0.564425   -1.173630
     13         15           0        2.514528   -0.359244    0.474928
     14          8           0        1.289176   -0.921696    1.203652
     15          8           0        3.774662   -1.133848    0.642475
     16          8           0        2.617903    1.150208    0.576086
     17          1           0       -3.070030   -2.067713    0.749440
     18          1           0       -3.980337   -0.001264   -0.794199
     19          1           0       -3.876092    0.247709    0.949748
     20          1           0       -0.464824   -0.896177    1.067162
     21          1           0       -2.162510    1.929491   -0.638617
     22          1           0       -1.145706    1.478772    1.911641
     23          1           0        0.401184    0.794592    0.429258
     24          1           0        1.424164    2.174451   -0.498892
     25          1           0       -0.336912    0.565668   -2.454230
     26          1           0        0.491071   -1.806017   -0.838366
     27          1           0        0.854822   -1.432459   -2.509661
 ---------------------------------------------------------------------

 The electronic state is 1-A.
 Alpha  occ. eigenvalues --  -79.70509 -20.34663 -20.33896 -20.32826 -20.31844
 Alpha  occ. eigenvalues --  -20.28456 -20.24219 -20.16181 -20.14856 -20.13961
 Alpha  occ. eigenvalues --  -11.10178 -11.06104 -11.04269 -11.02392 -11.00430
 Alpha  occ. eigenvalues --  -11.00223  -7.22706  -5.12634  -5.12493  -5.12466
 Alpha  occ. eigenvalues --   -1.19945  -1.15262  -1.14254  -1.10268  -1.09259
 Alpha  occ. eigenvalues --   -1.06565  -0.97250  -0.90460  -0.89612  -0.79998
 Alpha  occ. eigenvalues --   -0.78709  -0.70904  -0.62132  -0.58525  -0.55500
 Alpha  occ. eigenvalues --   -0.50393  -0.47980  -0.46159  -0.45331  -0.42433
 Alpha  occ. eigenvalues --   -0.41550  -0.39407  -0.37536  -0.37420  -0.35996
 Alpha  occ. eigenvalues --   -0.34884  -0.34098  -0.32134  -0.31002  -0.30053
 Alpha  occ. eigenvalues --   -0.28924  -0.27143  -0.26635  -0.24721  -0.23648
 Alpha  occ. eigenvalues --   -0.22897  -0.22408  -0.20798  -0.19470  -0.18768
 Alpha  occ. eigenvalues --   -0.15686  -0.14014  -0.12824  -0.12432  -0.12048
 Alpha  occ. eigenvalues --   -0.09368  -0.07190  -0.05464
 Alpha virt. eigenvalues --    0.46533   0.47338   0.48962   0.50214   0.51433
 Alpha virt. eigenvalues --    0.52526   0.54554   0.56715   0.57865   0.58730
 Alpha virt. eigenvalues --    0.59720   0.62593   0.63707   0.64337   0.66445

 Mulliken charges:
               1
     1  O   -0.799664
     2  C    0.061165
     3  C    0.582673
     4  O   -0.899816
     5  C    0.143669
     6  O   -0.785312
     7  C    0.094608
     8  O   -0.854267
     9  C    0.124389
    10  O   -0.711716
    11  C    0.068627
    12  O   -0.791594
    13  P    1.569222
    14  O   -0.972424
    15  O   -0.851026
    16  O   -0.940525
    17  H    0.468694
    18  H    0.126980
    19  H    0.129790
    20  H    0.556988
    21  H    0.131060
    22  H    0.455172
    23  H    0.234600
    24  H    0.507491
    25  H    0.128499
    26  H    0.150806
    27  H    0.071912
 Sum of Mulliken charges =  -2.00000

 Dipole moment (field-independent basis, Debye):
    X=            -12.8031    Y=              1.4821    Z=             -3.0675  Tot=             13.2486
 Quadrupole moment (field-independent basis, Debye-Ang):
   XX=           -192.0388   YY=           -130.3205   ZZ=           -114.5339
   XY=              2.0442   XZ=             -7.7710   YZ=              1.8881

 ESP charges:
               1
     1  O   -0.763337
     2  C    0.501745
     3  C    0.257220
     4  O   -0.781038
     5  C    0.310206
     6  O   -0.736423
     7  C    0.383798
     8  O   -0.819811
     9  C    0.111264
    10  O   -0.561897
    11  C    0.368172
    12  O   -0.680984
    13  P    1.493670
    14  O   -0.981622
    15  O   -0.916304
    16  O   -0.961628
    17  H    0.456996
    18  H   -0.052717
    19  H   -0.082269
    20  H    0.559330
    21  H    0.001822
    22  H    0.429783
    23  H    0.022337
    24  H    0.496546
    25  H    0.017643
    26  H   -0.006498
    27  H   -0.066003
 Sum of ESP charges =  -2.00000

 1\1\GINC-NID02215\FOpt\RHF\6-31G(d)\C6H11O9P1(2-)\NMIH\31-Mar-2017\0\\
 #HF/6-31G* SCF=tight Test Pop=MK iop(6/33=2) iop(6/42=6) opt\\F6P.pdb\
 \-2,1\O,2.2264666521,0.7741227553,3.7240133848\C,1.1154476608,-0.08178
 83795,3.6886365131\C,0.4461222757,-0.0894024637,2.3227402719\O,0.32320
 65911,1.2505901638,1.9648512896\C,-0.9069155465,-0.8086707409,2.275178
 2624\O,-1.9326866556,-0.1239488863,2.9396896721\C,-1.0617608408,-0.915
 4447882,0.7682088488\O,-2.0023827178,-1.8178162117,0.2855963144\C,0.38
 01050257,-1.2070092239,0.3119905842\O,1.2131051904,-0.8231056468,1.420

 Normal termination of Gaussian 09 at Fri Mar 31 08:35:57 2017.
