 Gaussian 09, Revision C.01,
 Gaussian 09:  AM64L-G09RevC.01 23-Sep-2011

 ----------------------------------------------
 #HF/6-31G* Test Pop=MK iop(6/33=2) iop(6/42=6)
 ----------------------------------------------

 99/5=1,9=1/99;
 --------
 15 atoms
 --------
 Charge = -3 Multiplicity = 1

                         Standard orientation:
 ---------------------------------------------------------------------
 Center     Atomic      Atomic             Coordinates (Angstroms)
 Number     Number       Type             X           Y           Z
 ---------------------------------------------------------------------
      1          6           0        1.905878   -0.861607   -0.035116
      2          6           0        0.849155    0.203708    0.100627
      3          6           0        1.463227    1.571183   -0.204412
      4         15           0       -1.548711   -0.248403    0.057083
      5          8           0        1.763797   -1.753345   -0.836816
      6          8           0        3.004331   -0.819556    0.734010
      7          8           0        0.460718    2.582584   -0.075246
      8          8           0       -0.211744   -0.056801   -0.818134
      9          8           0       -1.813749    0.986658    0.827627
     10          8           0       -2.792635   -0.547596   -0.920018
     11          8           0       -1.354906   -1.482703    1.071060
     12          1           0        0.458229    0.199429    1.117766
     13          1           0        1.854154    1.575462   -1.221551
     14          1           0        2.273488    1.771313    0.496515
     15          1           0        0.888729    3.426213   -0.275439
 ---------------------------------------------------------------------

 SCF Done:  E(RHF) =  -980.373269661     A.U. after   15 cycles

 The electronic state is 1-A.
 Alpha  occ. eigenvalues --  -79.51260 -20.19050 -20.09445 -20.04541 -20.02414
 Alpha  occ. eigenvalues --  -19.94391 -19.93783 -19.93270 -10.89421 -10.87726
 Alpha  occ. eigenvalues --  -10.84205  -7.03292  -4.93258  -4.93083  -4.92975
 Alpha  occ. eigenvalues --   -0.98313  -0.93227  -0.90171  -0.77589  -0.75715
 Alpha  occ. eigenvalues --   -0.67142  -0.64883  -0.59873  -0.44747  -0.32790
 Alpha  occ. eigenvalues --   -0.28912  -0.25338  -0.22644  -0.20320  -0.17984
 Alpha  occ. eigenvalues --   -0.13858  -0.12289  -0.10405  -0.08085  -0.07306
 Alpha  occ. eigenvalues --   -0.05954  -0.03568  -0.00176   0.01432   0.05321
 Alpha  occ. eigenvalues --    0.05950   0.07079   0.07237   0.09437   0.09742
 Alpha  occ. eigenvalues --    0.13228   0.14266   0.16514
 Alpha virt. eigenvalues --    0.55468   0.64447   0.67514   0.68931   0.76160
 Alpha virt. eigenvalues --    0.77339   0.79519   0.85707   0.85959   0.87924
 Alpha virt. eigenvalues --    0.88723   0.91661   0.94344   1.01484   1.04740

 Mulliken atomic charges:
              1
     1  C    0.725990
     2  C    0.070251
     3  C    0.012235
     4  P    1.460260
     5  O   -0.691987
     6  O   -0.932861
     7  O   -0.690172
     8  O   -0.732778
     9  O   -0.928704
    10  O   -1.016299
    11  O   -1.022054
    12  H    0.214145
    13  H    0.078731
    14  H    0.100401
    15  H    0.352839
 Sum of Mulliken atomic charges =  -3.00000

 Dipole moment (field-independent basis, Debye):
    X=              7.4861    Y=              9.6144    Z=             -2.1001  Tot=             12.3648
 Quadrupole moment (field-independent basis, Debye-Ang):
   XX=           -155.6679   YY=            -98.3836   ZZ=            -90.4052
   XY=             12.1404   XZ=             -4.9306   YZ=             -2.5250

 Normal termination of Gaussian 09 at Wed Sep 16 21:34:22 2015.
