 Gaussian 09, Revision D.01,
 Gaussian 09:  ES64L-G09RevD.01 24-Apr-2013

 ------------------------------------------------------------
 #HF/6-31G* SCF=tight Test Pop=MK iop(6/33=2) iop(6/42=6) opt
 ------------------------------------------------------------

 ------------------------
 H2PO4_representative.pdb
 ------------------------
 Symbolic Z-matrix:
 Charge = -1 Multiplicity = 1

 SCF Done:  E(RHF) =  -641.419548023     A.U. after   13 cycles
 SCF Done:  E(RHF) =  -641.456169377     A.U. after   12 cycles
 SCF Done:  E(RHF) =  -641.465803124     A.U. after   12 cycles
 SCF Done:  E(RHF) =  -641.467531579     A.U. after   11 cycles
 SCF Done:  E(RHF) =  -641.469076910     A.U. after   11 cycles
 SCF Done:  E(RHF) =  -641.470139122     A.U. after   11 cycles
 SCF Done:  E(RHF) =  -641.471172595     A.U. after   11 cycles
 SCF Done:  E(RHF) =  -641.471789138     A.U. after   11 cycles
 SCF Done:  E(RHF) =  -641.471849510     A.U. after   10 cycles
 SCF Done:  E(RHF) =  -641.471861209     A.U. after    9 cycles
 SCF Done:  E(RHF) =  -641.471864372     A.U. after    8 cycles
 Optimization completed.
    -- Stationary point found.

                         Standard orientation:
 ---------------------------------------------------------------------
 Center     Atomic      Atomic             Coordinates (Angstroms)
 Number     Number       Type             X           Y           Z
 ---------------------------------------------------------------------
      1         15           0        0.003599   -0.116985    0.119781
      2          8           0        0.052516   -1.581383    0.178869
      3          8           0       -0.035342    0.778626    1.301661
      4          8           0        1.262477    0.407165   -0.793409
      5          8           0       -1.275418    0.324598   -0.809656
      6          1           0        1.552304    1.221680   -0.407392
      7          1           0       -1.640145    1.101050   -0.409049
 ---------------------------------------------------------------------

 The electronic state is 1-A.
 Alpha  occ. eigenvalues --  -79.86309 -20.38896 -20.38876 -20.29390 -20.28823
 Alpha  occ. eigenvalues --   -7.38657  -5.28521  -5.28478  -5.28416  -1.22128
 Alpha  occ. eigenvalues --   -1.16628  -1.08755  -1.05487  -0.60311  -0.51807
 Alpha  occ. eigenvalues --   -0.46647  -0.42452  -0.41314  -0.34943  -0.33432
 Alpha  occ. eigenvalues --   -0.32061  -0.27169  -0.24861  -0.23621  -0.22053
 Alpha virt. eigenvalues --    0.38296   0.42748   0.50581   0.53999   0.54200
 Alpha virt. eigenvalues --    0.60913   0.69587   0.73393   0.78126   0.86521
 Alpha virt. eigenvalues --    1.09415   1.11064   1.22793   1.24860   1.26510

 Mulliken charges:
               1
     1  P    1.467999
     2  O   -0.787431
     3  O   -0.869809
     4  O   -0.842145
     5  O   -0.843257
     6  H    0.437185
     7  H    0.437459
 Sum of Mulliken charges =  -1.00000

 Dipole moment (field-independent basis, Debye):
    X=             -0.1488    Y=              3.9648    Z=             -1.3616  Tot=              4.1947
 Quadrupole moment (field-independent basis, Debye-Ang):
   XX=            -36.2973   YY=            -42.1867   ZZ=            -45.8650
   XY=              0.2349   XZ=              0.1009   YZ=             -2.6186

 ESP charges:
               1
     1  P    1.389160
     2  O   -0.808729
     3  O   -0.898837
     4  O   -0.748331
     5  O   -0.750285
     6  H    0.408150
     7  H    0.408873
 Sum of ESP charges =  -1.00000

 Normal termination of Gaussian 09 at Fri Sep 30 06:23:11 2016.
