 Gaussian 09, Revision C.01,
 Gaussian 09:  AM64L-G09RevC.01 23-Sep-2011

 ------------------------------------------------------------
 #HF/6-31G* SCF=tight Test Pop=MK iop(6/33=2) iop(6/42=6) opt
 ------------------------------------------------------------

 99/9=1/99;
 --------
 15 atoms
 --------
 Charge = -2 Multiplicity = 1

 SCF Done:  E(RHF) =  -906.356891497     A.U. after   16 cycles
 SCF Done:  E(RHF) =  -906.369169513     A.U. after   15 cycles
 SCF Done:  E(RHF) =  -906.374137509     A.U. after   15 cycles
 SCF Done:  E(RHF) =  -906.377945819     A.U. after   14 cycles
 SCF Done:  E(RHF) =  -906.379948638     A.U. after   15 cycles
 SCF Done:  E(RHF) =  -906.377589339     A.U. after   15 cycles
 SCF Done:  E(RHF) =  -906.381818510     A.U. after   15 cycles
 SCF Done:  E(RHF) =  -906.383477591     A.U. after   15 cycles
 SCF Done:  E(RHF) =  -906.310544897     A.U. after   17 cycles
 SCF Done:  E(RHF) =  -906.388070288     A.U. after   17 cycles
 SCF Done:  E(RHF) =  -906.390970871     A.U. after   15 cycles
 SCF Done:  E(RHF) =  -906.391082575     A.U. after   13 cycles
 SCF Done:  E(RHF) =  -906.391647236     A.U. after   14 cycles
 SCF Done:  E(RHF) =  -906.391789530     A.U. after   12 cycles
 SCF Done:  E(RHF) =  -906.391814528     A.U. after   12 cycles
 SCF Done:  E(RHF) =  -906.391830217     A.U. after   12 cycles
 SCF Done:  E(RHF) =  -906.391844539     A.U. after    9 cycles
 SCF Done:  E(RHF) =  -906.391864253     A.U. after   12 cycles
 SCF Done:  E(RHF) =  -906.391868525     A.U. after   12 cycles
 SCF Done:  E(RHF) =  -906.391869085     A.U. after   10 cycles
 Optimization completed.
    -- Stationary point found.

                         Standard orientation:
 ---------------------------------------------------------------------
 Center     Atomic      Atomic             Coordinates (Angstroms)
 Number     Number       Type             X           Y           Z
 ---------------------------------------------------------------------
      1         15           0       -1.773324   -0.152394    0.062669
      2          8           0       -0.529216    0.845860   -0.663291
      3          8           0        2.985762    1.075331    0.127774
      4          8           0       -2.734988   -0.294456   -1.076285
      5          8           0       -2.213590    0.663326    1.245868
      6          8           0       -0.979801   -1.396819    0.420381
      7          8           0        2.793186   -1.521257    0.211359
      8          6           0        0.532656    1.202599    0.122862
      9          6           0        1.804030    0.526469   -0.412326
     10          6           0        1.793930   -0.968859   -0.188084
     11          1           0        0.714204    2.281352    0.076077
     12          1           0        0.388926    0.951565    1.168843
     13          1           0        1.794634    0.672146   -1.493941
     14          1           0        0.855413   -1.482512   -0.376479
     15          1           0        3.492172    0.326224    0.424308
 ---------------------------------------------------------------------

 The electronic state is 1-A.
 Alpha  occ. eigenvalues --  -79.65774 -20.32049 -20.31930 -20.21216 -20.10871
 Alpha  occ. eigenvalues --  -20.10057 -20.09961 -11.06583 -11.02246 -10.98649
 Alpha  occ. eigenvalues --   -7.17998  -5.07940  -5.07758  -5.07739  -1.16394
 Alpha  occ. eigenvalues --   -1.11638  -1.03395  -0.92981  -0.85476  -0.85108
 Alpha  occ. eigenvalues --   -0.74786  -0.60546  -0.52548  -0.47144  -0.42709
 Alpha  occ. eigenvalues --   -0.40258  -0.35584  -0.33368  -0.31520  -0.29566
 Alpha  occ. eigenvalues --   -0.27660  -0.25946  -0.22141  -0.19173  -0.18845
 Alpha  occ. eigenvalues --   -0.17547  -0.15527  -0.11458  -0.08633  -0.08029
 Alpha  occ. eigenvalues --   -0.07888  -0.04253  -0.03612  -0.00600
 Alpha virt. eigenvalues --    0.40844   0.50733   0.53296   0.56280   0.60217
 Alpha virt. eigenvalues --    0.62053   0.62476   0.67548   0.69973   0.72065
 Alpha virt. eigenvalues --    0.73314   0.74275   0.76539   0.79886   0.82512

 Mulliken atomic charges:
              1
     1  P    1.461992
     2  O   -0.789154
     3  O   -0.818423
     4  O   -0.888751
     5  O   -0.920122
     6  O   -0.948283
     7  O   -0.623656
     8  C    0.066260
     9  C    0.071273
    10  C    0.282104
    11  H    0.077231
    12  H    0.151232
    13  H    0.135957
    14  H    0.296640
    15  H    0.445699
 Sum of Mulliken atomic charges =  -2.00000

 Dipole moment (field-independent basis, Debye):
    X=             11.1189    Y=              1.4807    Z=             -1.2071  Tot=             11.2819
 Quadrupole moment (field-independent basis, Debye-Ang):
   XX=           -124.5697   YY=            -84.2638   ZZ=            -78.1991
   XY=              0.7189   XZ=             -2.3096   YZ=              0.1099

 Normal termination of Gaussian 09 at Sun Jul 19 16:08:33 2015.
