 Gaussian 09, Revision C.01,
 Gaussian 09:  AM64L-G09RevC.01 23-Sep-2011

 ----------------------------------------------
 #HF/6-31G* Test Pop=MK iop(6/33=2) iop(6/42=6)
 ----------------------------------------------

 99/5=1,9=1/99;
 -------------
 F6P_ideal.pdb
 -------------
 Charge = -2 Multiplicity = 1

                         Standard orientation:
 ---------------------------------------------------------------------
 Center     Atomic      Atomic             Coordinates (Angstroms)
 Number     Number       Type             X           Y           Z
 ---------------------------------------------------------------------
      1          6           0        4.250106   -1.070927    0.658787
      2          6           0        3.692329    0.130501   -0.060332
      3          6           0        2.408230    0.762792    0.411601
      4          6           0        1.226268   -0.117474    0.000508
      5          6           0       -0.083978    0.582819    0.368047
      6          6           0       -1.265946   -0.296450   -0.042961
      7          8           0        5.463676   -1.482241    0.027632
      8          8           0        4.274966    0.587188   -1.015074
      9          8           0        2.267711    2.055295   -0.181292
     10          8           0        1.266339   -0.340564   -1.410998
     11          8           0       -0.124062    0.806990    1.778641
     12          8           0       -2.487073    0.405567    0.193602
     13         15           0       -3.935113   -0.221217   -0.125610
     14          8           0       -4.193339   -1.490129    0.831506
     15          8           0       -5.070754    0.889395    0.139301
     16          8           0       -3.985695   -0.651354   -1.540138
     17          1           0        4.450325   -0.811501    1.698295
     18          1           0        3.526210   -1.885003    0.620409
     19          1           0        2.428823    0.859646    1.496700
     20          1           0        1.286074   -1.073088    0.521460
     21          1           0       -0.142783    1.538439   -0.152912
     22          1           0       -1.186387   -0.540445   -1.102241
     23          1           0       -1.255952   -1.215754    0.542686
     24          1           0        5.879543   -2.252709    0.439413
     25          1           0        2.242339    2.044585   -1.147571
     26          1           0        1.217469    0.467147   -1.938672
     27          1           0       -0.075179   -0.001802    2.307226
 ---------------------------------------------------------------------

 SCF Done:  E(RHF) =  -1247.94599328     A.U. after   16 cycles

 The electronic state is 1-A.
 Alpha  occ. eigenvalues --  -79.63930 -20.45045 -20.42269 -20.42126 -20.41254
 Alpha  occ. eigenvalues --  -20.36761 -20.24429 -20.06830 -20.05641 -20.05614
 Alpha  occ. eigenvalues --  -11.19550 -11.17504 -11.14899 -11.13106 -11.08099
 Alpha  occ. eigenvalues --  -11.02289  -7.15898  -5.05904  -5.05665  -5.05555
 Alpha  occ. eigenvalues --   -1.27031  -1.23585  -1.21886  -1.19556  -1.16103
 Alpha  occ. eigenvalues --   -1.05653  -0.91366  -0.88198  -0.85269  -0.79575
 Alpha  occ. eigenvalues --   -0.78816  -0.76726  -0.69765  -0.63422  -0.61225
 Alpha  occ. eigenvalues --   -0.59428  -0.55241  -0.54078  -0.53274  -0.51801
 Alpha  occ. eigenvalues --   -0.50291  -0.48088  -0.45385  -0.42385  -0.40812
 Alpha  occ. eigenvalues --   -0.39784  -0.39621  -0.38949  -0.36627  -0.36000
 Alpha  occ. eigenvalues --   -0.34707  -0.33756  -0.32981  -0.30409  -0.29027
 Alpha  occ. eigenvalues --   -0.27596  -0.24434  -0.23023  -0.18991  -0.18392
 Alpha  occ. eigenvalues --   -0.11982  -0.10766  -0.05653  -0.02375  -0.02051
 Alpha  occ. eigenvalues --    0.00978   0.02196   0.04660
 Alpha virt. eigenvalues --    0.29354   0.32114   0.34166   0.36581   0.40517
 Alpha virt. eigenvalues --    0.41832   0.43906   0.46116   0.47642   0.49632
 Alpha virt. eigenvalues --    0.50296   0.54953   0.55459   0.55982   0.57824

 Mulliken atomic charges:
              1
     1  C   -0.063123
     2  C    0.520237
     3  C    0.081110
     4  C    0.103132
     5  C    0.136607
     6  C    0.091840
     7  O   -0.739336
     8  O   -0.538599
     9  O   -0.757898
    10  O   -0.767528
    11  O   -0.767743
    12  O   -0.723413
    13  P    1.404281
    14  O   -1.007900
    15  O   -0.980261
    16  O   -0.910387
    17  H    0.157995
    18  H    0.187882
    19  H    0.203569
    20  H    0.161982
    21  H    0.188916
    22  H    0.162993
    23  H    0.116794
    24  H    0.431806
    25  H    0.442884
    26  H    0.439031
    27  H    0.425128
 Sum of Mulliken atomic charges =  -2.00000

 Dipole moment (field-independent basis, Debye):
    X=             38.0376    Y=             -0.3768    Z=              3.3790  Tot=             38.1892
 Quadrupole moment (field-independent basis, Debye-Ang):
   XX=           -313.9892   YY=           -117.9472   ZZ=           -112.0292
   XY=            -22.8189   XZ=             14.1176   YZ=            -11.3007

 Normal termination of Gaussian 09 at Tue Aug 25 13:36:20 2015.
