 Gaussian 09, Revision C.01,
 Gaussian 09:  AM64L-G09RevC.01 23-Sep-2011

 ------------------------------------------------------------
 #HF/6-31G* SCF=tight Test Pop=MK iop(6/33=2) iop(6/42=6) opt
 ------------------------------------------------------------

 99/9=1/99;
 ---------
 13DPG.pdb
 ---------
 Charge = -4 Multiplicity = 1

 SCF Done:  E(RHF) =  -1545.58654396     A.U. after   15 cycles
 SCF Done:  E(RHF) =  -1545.64691091     A.U. after   14 cycles
 SCF Done:  E(RHF) =  -1545.68373581     A.U. after   14 cycles
 SCF Done:  E(RHF) =  -1545.69268929     A.U. after   13 cycles
 SCF Done:  E(RHF) =  -1545.69750870     A.U. after   13 cycles
 SCF Done:  E(RHF) =  -1545.70068249     A.U. after   15 cycles
 SCF Done:  E(RHF) =  -1545.69853702     A.U. after   15 cycles
 SCF Done:  E(RHF) =  -1545.70149911     A.U. after   13 cycles
 SCF Done:  E(RHF) =  -1545.70170971     A.U. after   11 cycles
 SCF Done:  E(RHF) =  -1545.70180261     A.U. after   11 cycles
 SCF Done:  E(RHF) =  -1545.70185446     A.U. after   12 cycles
 SCF Done:  E(RHF) =  -1545.70187016     A.U. after   10 cycles
 SCF Done:  E(RHF) =  -1545.70188705     A.U. after   12 cycles
 SCF Done:  E(RHF) =  -1545.70189415     A.U. after   11 cycles
 SCF Done:  E(RHF) =  -1545.70189653     A.U. after   10 cycles
 SCF Done:  E(RHF) =  -1545.70189745     A.U. after    8 cycles
 SCF Done:  E(RHF) =  -1545.70189785     A.U. after    8 cycles
 SCF Done:  E(RHF) =  -1545.70189800     A.U. after    8 cycles
 SCF Done:  E(RHF) =  -1545.70189808     A.U. after    7 cycles
 Optimization completed.
    -- Stationary point found.

                         Standard orientation:
 ---------------------------------------------------------------------
 Center     Atomic      Atomic             Coordinates (Angstroms)
 Number     Number       Type             X           Y           Z
 ---------------------------------------------------------------------
      1          8           0        4.134998   -1.556931   -1.038780
      2         15           0        3.923178   -0.458653   -0.039768
      3          8           0        4.092103   -0.839356    1.397633
      4          8           0        4.412517    0.897861   -0.445843
      5          8           0        2.065361   -0.279359   -0.240768
      6          6           0        1.254414    0.597189    0.208021
      7          8           0        1.429378    1.383415    1.119641
      8          6           0       -0.110363    0.699800   -0.532000
      9          8           0       -0.355213    2.088877   -0.697490
     10          6           0       -1.288608    0.012366    0.189837
     11          8           0       -2.426094    0.053321   -0.594901
     12         15           0       -3.965329   -0.386123    0.057141
     13          8           0       -4.863079   -0.219465   -1.149529
     14          8           0       -3.782651   -1.814878    0.524479
     15          8           0       -4.206779    0.607888    1.174189
     16          1           0       -0.011603    0.275894   -1.522188
     17          1           0       -0.048616    2.463482    0.120084
     18          1           0       -1.001044   -1.016580    0.416930
     19          1           0       -1.443453    0.521729    1.140391
 ---------------------------------------------------------------------

 The electronic state is 1-A.
 Alpha  occ. eigenvalues --  -79.52773 -79.48643 -20.10738 -20.08390 -20.06375
 Alpha  occ. eigenvalues --  -20.02683 -19.97028 -19.96979 -19.96938 -19.93057
 Alpha  occ. eigenvalues --  -19.92898 -19.92836 -10.89653 -10.81753 -10.78986
 Alpha  occ. eigenvalues --   -7.04991  -7.00731  -4.94945  -4.94703  -4.94702
 Alpha  occ. eigenvalues --   -4.90671  -4.90512  -4.90491  -0.96052  -0.91084
 Alpha  occ. eigenvalues --   -0.85760  -0.84031  -0.80272  -0.75027  -0.72027
 Alpha  occ. eigenvalues --   -0.71887  -0.67641  -0.67450  -0.52913  -0.38879
 Alpha  occ. eigenvalues --   -0.31694  -0.25828  -0.21252  -0.19442  -0.17731
 Alpha  occ. eigenvalues --   -0.15951  -0.14029  -0.12682  -0.10359  -0.08568
 Alpha  occ. eigenvalues --   -0.08302  -0.05109  -0.04835  -0.03891  -0.02722
 Alpha  occ. eigenvalues --   -0.01461   0.00126   0.01937   0.02580   0.03112
 Alpha  occ. eigenvalues --    0.04995   0.05245   0.06227   0.06811   0.08874
 Alpha  occ. eigenvalues --    0.09040   0.09102   0.09299   0.10031   0.12815
 Alpha  occ. eigenvalues --    0.13171   0.13908   0.16707
 Alpha virt. eigenvalues --    0.66884   0.71246   0.74290   0.76254   0.76851
 Alpha virt. eigenvalues --    0.79943   0.81354   0.82257   0.85355   0.86522
 Alpha virt. eigenvalues --    0.86861   0.87408   0.88923   0.90997   0.93768

 Mulliken atomic charges:
              1
     1  O   -0.906802
     2  P    1.439580
     3  O   -0.900838
     4  O   -0.910808
     5  O   -0.765171
     6  C    0.796168
     7  O   -0.704174
     8  C    0.071221
     9  O   -0.795127
    10  C    0.099014
    11  O   -0.781487
    12  P    1.427606
    13  O   -0.942778
    14  O   -0.953884
    15  O   -0.953783
    16  H    0.142390
    17  H    0.431109
    18  H    0.102924
    19  H    0.104839
 Sum of Mulliken atomic charges =  -4.00000

 Dipole moment (field-independent basis, Debye):
    X=              3.9287    Y=              4.3146    Z=             -0.5270  Tot=              5.8590
 Quadrupole moment (field-independent basis, Debye-Ang):
   XX=           -422.2767   YY=           -140.1461   ZZ=           -133.5315
   XY=             -0.2181   XZ=             -1.4905   YZ=             -0.1698

 1\1\GINC-NID04133\FOpt\RHF\6-31G(d)\C3H4O10P2(4-)\NMIH\24-Aug-2015\0\\
 #HF/6-31G* SCF=tight Test Pop=MK iop(6/33=2) iop(6/42=6) opt\\13DPG.pd
 b\\-4,1\O,4.1229830016,1.3415076252,1.3061003968\P,3.9338593349,0.3796
 90834,0.1710896856\O,4.1180978902,0.9436763641,-1.2027976126\O,4.42981
 39521,-1.01435792,0.4059053159\O,2.075237949,0.1628626643,0.3212398067
 \C,1.2779521149,-0.6542337498,-0.248033269\O,1.4716780156,-1.315141482
 9,-1.2507731494\C,-0.0953742535,-0.8610143482,0.4533888366\O,-0.330102
 4887,-2.2615293585,0.4351519087\C,-1.2701473007,-0.0946146999,-0.19036

 Normal termination of Gaussian 09 at Mon Aug 24 19:54:28 2015.
